10
energy=-0.00998655 ediff_cc=-0.00109638 cutoff=-1.00000000 nneightol=1.20000000 pbc="T T T" Lattice="30.00000000       0.00000000       0.00000000       0.00000000      30.00000000       0.00000000       0.00000000       0.00000000      30.00000000" Properties=species:S:1:pos:R:3:Z:I:1:resid:I:1:force:R:3
C               0.67655467      1.53558322     -1.64751401       6     141      0.00152822     -0.00057094     -0.00049239
H               0.62038120      1.03628756     -0.68231701       1     141     -0.00331393     -0.00627386      0.00891613
H               0.38843306      0.83959819     -2.43258845       1     141     -0.00145188     -0.00151616     -0.00092832
H               1.69528466      1.87629793     -1.82028809       1     141      0.00139596      0.00108906     -0.00065731
H               0.00216686      2.38948973     -1.65395806       1     141     -0.00122184      0.00083637     -0.00013244
C              -0.67655467     -1.53558322      1.64751401       6     148      0.00278940      0.00189125      0.00103092
H              -0.15292844     -1.79565316      2.56522617       1     148      0.00099199      0.00006716      0.00114083
H               0.00113054     -1.63653049      0.80215612       1     148      0.00310865     -0.00134432     -0.00668266
H              -1.02845731     -0.50776289      1.70952859       1     148     -0.00314982      0.00507783     -0.00042915
H              -1.52591635     -2.20229213      1.51312161       1     148     -0.00067677      0.00074360     -0.00176559
10
energy=-0.00086707 ediff_cc=-0.00003071 cutoff=-1.00000000 nneightol=1.20000000 pbc="T T T" Lattice="30.00000000       0.00000000       0.00000000       0.00000000      30.00000000       0.00000000       0.00000000       0.00000000      30.00000000" Properties=species:S:1:pos:R:3:Z:I:1:resid:I:1:force:R:3
C               2.26394324      1.51492828      2.02613500       6      30     -0.00027178      0.00002960      0.00000847
H               1.61510041      2.30088008      2.40727378       1      30     -0.00015179      0.00020212      0.00022352
H               3.29815328      1.74730391      2.27203257       1      30      0.00024647      0.00010432      0.00003643
H               2.15463909      1.44645959      0.94565587       1      30     -0.00017672     -0.00044094     -0.00059581
H               1.98795394      0.56504498      2.47950404       1      30     -0.00020735     -0.00025564     -0.00014484
C              -2.26394324     -1.51492828     -2.02613500       6      79      0.00028854     -0.00010311     -0.00002738
H              -3.33092486     -1.61582434     -2.21420903       1      79     -0.00021159      0.00002556     -0.00009548
H              -1.70785897     -1.87012962     -2.89144762       1      79      0.00008037     -0.00019962     -0.00027970
H              -1.99203502     -2.10491455     -1.15320109       1      79      0.00023320      0.00014946      0.00034257
H              -2.02475743     -0.46886920     -1.84573145       1      79      0.00017066      0.00048826      0.00053221
10
energy=-0.00916513 ediff_cc=-0.00090522 cutoff=-1.00000000 nneightol=1.20000000 pbc="T T T" Lattice="30.00000000       0.00000000       0.00000000       0.00000000      30.00000000       0.00000000       0.00000000       0.00000000      30.00000000" Properties=species:S:1:pos:R:3:Z:I:1:resid:I:1:force:R:3
C               1.81837355      1.11485105      1.06870556       6       9      0.00115662     -0.00060825     -0.00070859
H               2.75584647      0.95962705      0.53862853       1       9      0.00158046      0.00021503     -0.00077548
H               0.98614205      0.98013009      0.38079152       1       9     -0.00866891     -0.00490728     -0.00475935
H               1.79387250      2.12422165      1.47431727       1       9      0.00032417      0.00107788      0.00101794
H               1.73758291      0.39545807      1.88103466       1       9     -0.00150488     -0.00119735      0.00122557
C              -1.81837355     -1.11485105     -1.06870556       6      94      0.00227515     -0.00143531      0.00250841
H              -2.59372492     -1.32719406     -0.33544322       1      94      0.00008440      0.00124098      0.00133193
H              -0.86686341     -1.50568783     -0.71396556       1      94      0.00556390     -0.00107052      0.00304332
H              -1.73828151     -0.03904598     -1.21070609       1      94     -0.00117580      0.00573361     -0.00125036
H              -2.07457661     -1.58748386     -2.01469982       1      94      0.00036493      0.00095115     -0.00163343
10
energy=-0.01313511 ediff_cc=-0.00288514 cutoff=-1.00000000 nneightol=1.20000000 pbc="T T T" Lattice="30.00000000       0.00000000       0.00000000       0.00000000      30.00000000       0.00000000       0.00000000       0.00000000      30.00000000" Properties=species:S:1:pos:R:3:Z:I:1:resid:I:1:force:R:3
C               1.56774512     -0.83176323      1.04716158       6      71      0.00203537     -0.01000836     -0.00094112
H               1.79127109     -1.23368504      2.03318938       1      71      0.00217325      0.00162405      0.00304270
H               1.42203233      0.24408856      1.11853456       1      71      0.00233194      0.00669699      0.00708118
H               0.66208745     -1.29620567      0.66325741       1      71     -0.00325722     -0.00319644      0.00097797
H               2.39653031     -1.04207087      0.37364084       1      71      0.00295808      0.00039702     -0.00291929
C              -1.56774512      0.83176323     -1.04716158       6     127      0.00901417      0.00698549      0.00262311
H              -2.29259447      1.14279856     -0.29775729       1     127     -0.00378590      0.00094992      0.00230387
H              -1.48300931      1.60162090     -1.81130358       1     127     -0.00489881      0.00142156     -0.00459869
H              -1.89607527     -0.09905131     -1.50497140       1     127     -0.00121303     -0.00451746     -0.00300871
H              -0.59925318      0.68163652     -0.57466228       1     127     -0.00535785     -0.00035275     -0.00456099
10
energy=-0.00075120 ediff_cc=-0.00003717 cutoff=-1.00000000 nneightol=1.20000000 pbc="T T T" Lattice="30.00000000       0.00000000       0.00000000       0.00000000      30.00000000       0.00000000       0.00000000       0.00000000      30.00000000" Properties=species:S:1:pos:R:3:Z:I:1:resid:I:1:force:R:3
C              -0.62952925     -3.14344635     -1.53341805       6       3     -0.00010395      0.00050568     -0.00031022
H              -0.09097981     -2.89509629     -2.44520007       1       3      0.00016401     -0.00004913     -0.00026544
H              -1.65137348     -2.77617010     -1.60433882       1       3     -0.00030736      0.00001158      0.00002848
H              -0.13531120     -2.67878302     -0.68257691       1       3      0.00031643      0.00018332      0.00072191
H              -0.64064165     -4.22345226     -1.40102206       1       3      0.00005041     -0.00002798      0.00011017
C               0.62952925      3.14344635      1.53341805       6       7     -0.00001660     -0.00013001      0.00017554
H              -0.29298905      3.44648354      2.02451528       1       7     -0.00012887     -0.00002981      0.00004520
H               1.10866281      4.01498858      1.09197198       1       7      0.00010525      0.00002348     -0.00008675
H               0.40382932      2.41929693      0.75349295       1       7     -0.00029132     -0.00050283     -0.00068496
H               1.29809375      2.69294540      2.26442494       1       7      0.00021196      0.00001571      0.00026606
10
energy=-0.00730111 ediff_cc=-0.00117836 cutoff=-1.00000000 nneightol=1.20000000 pbc="T T T" Lattice="30.00000000       0.00000000       0.00000000       0.00000000      30.00000000       0.00000000       0.00000000       0.00000000      30.00000000" Properties=species:S:1:pos:R:3:Z:I:1:resid:I:1:force:R:3
C               1.54987902     -1.49522590      1.07202017       6     114      0.00332600     -0.00386979      0.00087873
H               1.30174108     -1.95564488      2.02617541       1     114     -0.00085222      0.00043458      0.00122549
H               2.60933205     -1.24782092      1.05328586       1     114      0.00092859      0.00127689      0.00002984
H               0.96320462     -0.58782192      0.94368893       1     114     -0.00441923      0.00290312     -0.00317542
H               1.32523834     -2.18954260      0.26490607       1     114     -0.00249076      0.00207515     -0.00165835
C              -1.54987902      1.49522590     -1.07202017       6     188     -0.00376028     -0.00094563     -0.00483421
H              -2.50591478      1.03773797     -0.82570431       1     188      0.00026371     -0.00128623      0.00182969
H              -1.16950180      1.06533868     -1.99615899       1     188      0.00256333     -0.00171650      0.00087627
H              -0.84115075      1.31008129     -0.26710191       1     188      0.00344083     -0.00021426      0.00352173
H              -1.68287549      2.56774565     -1.19830456       1     188      0.00100005      0.00134265      0.00130623
10
energy=-0.01100331 ediff_cc=-0.00136716 cutoff=-1.00000000 nneightol=1.20000000 pbc="T T T" Lattice="30.00000000       0.00000000       0.00000000       0.00000000      30.00000000       0.00000000       0.00000000       0.00000000      30.00000000" Properties=species:S:1:pos:R:3:Z:I:1:resid:I:1:force:R:3
C               1.00903751      1.81565344     -0.85817105       6     134      0.00002054     -0.00167244     -0.00392318
H               1.55647638      2.54878511     -0.26918123       1     134     -0.00055202      0.00112748      0.00148270
H               0.05930524      1.59738266     -0.37393282       1     134     -0.00326151     -0.00242318      0.00679650
H               1.59504471      0.90202219     -0.93574482       1     134     -0.00103734     -0.00545636      0.00202526
H               0.82532369      2.21437237     -1.85385106       1     134      0.00038913      0.00177634     -0.00233441
C              -1.00903751     -1.81565344      0.85817105       6     137     -0.00077513      0.00088637      0.00072244
H              -1.61648870     -1.48903149      1.69986058       1     137     -0.00119776     -0.00008331      0.00270161
H              -1.37227404     -2.77705794      0.50005125       1     137     -0.00174269     -0.00155327     -0.00025230
H               0.02716496     -1.91451681      1.17538271       1     137      0.00310956      0.00355479     -0.00097035
H              -1.07473223     -1.08208466      0.05713255       1     137      0.00504722      0.00384361     -0.00624831
10
energy=-0.00159397 ediff_cc=-0.00009391 cutoff=-1.00000000 nneightol=1.20000000 pbc="T T T" Lattice="30.00000000       0.00000000       0.00000000       0.00000000      30.00000000       0.00000000       0.00000000       0.00000000      30.00000000" Properties=species:S:1:pos:R:3:Z:I:1:resid:I:1:force:R:3
C              -1.86818955      2.40713568      0.43203279       6      60      0.00040045      0.00027428      0.00074387
H              -2.20048633      1.85019345      1.30577971       1      60      0.00005721     -0.00054441     -0.00000351
H              -1.67972972      1.71692521     -0.38780136       1      60      0.00041357     -0.00120476     -0.00060710
H              -0.95289900      2.94473093      0.67114348       1      60      0.00048012     -0.00006743     -0.00006080
H              -2.63946046      3.11651048      0.13903544       1      60     -0.00033599      0.00022098     -0.00028739
C               1.86818955     -2.40713568     -0.43203279       6     173      0.00015773     -0.00042233      0.00069152
H               1.78390714     -2.13023941      0.61683928       1     173     -0.00052236      0.00072954      0.00010023
H               1.26886278     -1.72858194     -1.03561569       1     173     -0.00078170      0.00130006     -0.00009642
H               1.51045773     -3.42571002     -0.56811947       1     173     -0.00013276     -0.00038795     -0.00018360
H               2.90948617     -2.34408966     -0.74128748       1     173      0.00026370      0.00010208     -0.00029675
10
energy=-0.00801956 ediff_cc=-0.00411788 cutoff=-1.00000000 nneightol=1.20000000 pbc="T T T" Lattice="30.00000000       0.00000000       0.00000000       0.00000000      30.00000000       0.00000000       0.00000000       0.00000000      30.00000000" Properties=species:S:1:pos:R:3:Z:I:1:resid:I:1:force:R:3
C               1.00241669     -1.12518471      1.24908900       6      34     -0.02237689     -0.00623203     -0.00166347
H               0.19567376     -0.67708370      0.67269033       1      34      0.02820011     -0.02039584      0.01747162
H               1.13294094     -2.16177018      0.94519973       1      34      0.00575972     -0.00588235      0.00285060
H               0.75640752     -1.08564712      2.30829725       1      34      0.00568262     -0.00285826      0.00808775
H               1.92449441     -0.57596256      1.07019371       1      34      0.00585148      0.00477602     -0.00148038
C              -1.00241669      1.12518471     -1.24908900       6      64      0.00118883      0.01877440     -0.01585178
H              -1.40314815      2.12211498     -1.42062729       1      64     -0.00702317      0.00215898     -0.00245395
H               0.05831801      1.19561166     -1.01719326       1      64     -0.00200996      0.00423837     -0.00167984
H              -1.13877149      0.52064748     -2.14341530       1      64     -0.00089643     -0.00549750     -0.00328779
H              -1.52604013      0.66234969     -0.41514517       1      64     -0.01437632      0.01091822     -0.00199275
10
energy=-0.01104261 ediff_cc=-0.00118062 cutoff=-1.00000000 nneightol=1.20000000 pbc="T T T" Lattice="30.00000000       0.00000000       0.00000000       0.00000000      30.00000000       0.00000000       0.00000000       0.00000000      30.00000000" Properties=species:S:1:pos:R:3:Z:I:1:resid:I:1:force:R:3
C               0.44632052     -2.10078753     -0.60355563       6      76      0.00304498      0.00198773     -0.00081004
H               1.00784487     -1.36291317     -0.03426141       1      76     -0.00273877      0.00728006      0.00384633
H               0.66828590     -1.98737555     -1.66269315       1      76     -0.00019280      0.00066983     -0.00225411
H              -0.61912865     -1.95242968     -0.43845719       1      76     -0.00299301      0.00286536      0.00226085
H               0.72798456     -3.10038368     -0.27895489       1      76     -0.00040834     -0.00269887     -0.00008003
C              -0.44632052      2.10078753      0.60355563       6     165     -0.00212611     -0.00209312      0.00202405
H              -1.13959455      1.33315514      0.26598527       1     165      0.00222281     -0.00722043     -0.00305844
H               0.55883675      1.85607033      0.26555295       1     165      0.00269921     -0.00362407     -0.00419451
H              -0.46145174      2.15062443      1.69038569       1     165     -0.00021466      0.00029120      0.00251284
H              -0.74274831      3.06349237      0.19217853       1     165      0.00070671      0.00254234     -0.00024693
10
energy=0.02102726 ediff_cc=-0.00692257 cutoff=-1.00000000 nneightol=1.20000000 pbc="T T T" Lattice="30.00000000       0.00000000       0.00000000       0.00000000      30.00000000       0.00000000       0.00000000       0.00000000      30.00000000" Properties=species:S:1:pos:R:3:Z:I:1:resid:I:1:force:R:3
C              -0.04636685     -1.21435485      1.24293124       6      89     -0.03275454     -0.01197019      0.06976468
H               0.89101022     -1.40530938      1.76149719       1      89      0.01008127     -0.01410773      0.01401316
H              -0.23787270     -0.14338963      1.22229979       1      89     -0.01702432     -0.08535689      0.04312969
H              -0.85820598     -1.71801570      1.76382153       1      89      0.00582718     -0.02306349      0.01767611
H               0.01955315     -1.59072866      0.22408250       1      89     -0.00767124      0.01708990     -0.00394687
C               0.04636685      1.21435485     -1.24293124       6     184      0.05640864      0.06089722     -0.01773256
H               0.22646670      0.73185260     -2.20146713       1     184     -0.00021844      0.00037048     -0.01601198
H               0.71910544      0.79861120     -0.49550233       1     184     -0.01343443      0.05052712     -0.08532538
H              -0.98424712      1.04312118     -0.93861132       1     184      0.00400081     -0.00926749      0.00668520
H               0.22411840      2.28381046     -1.33609627       1     184     -0.00521495      0.01488103     -0.02825208
10
energy=-0.00272854 ediff_cc=-0.00018464 cutoff=-1.00000000 nneightol=1.20000000 pbc="T T T" Lattice="30.00000000       0.00000000       0.00000000       0.00000000      30.00000000       0.00000000       0.00000000       0.00000000      30.00000000" Properties=species:S:1:pos:R:3:Z:I:1:resid:I:1:force:R:3
C              -0.10248213      0.51533538      2.88070751       6     105      0.00106775      0.00187525     -0.00087926
H              -0.60171085      0.16892137      3.78326780       1     105     -0.00021718     -0.00056805     -0.00028311
H               0.92609515      0.78200771      3.11475634       1     105      0.00056063      0.00010319      0.00025915
H              -0.62325942      1.38714877      2.49004026       1     105     -0.00065975      0.00056209     -0.00027164
H              -0.11105341     -0.27666412      2.13474156       1     105     -0.00057012     -0.00248932     -0.00189348
C               0.10248213     -0.51533538     -2.88070751       6     127     -0.00048784     -0.00084585     -0.00026861
H               0.35169923     -0.15560701     -1.88456139       1     127      0.00054972      0.00190853      0.00328392
H               0.99741010     -0.51858572     -3.49957298       1     127      0.00046528     -0.00007155      0.00006865
H              -0.64418201      0.13875340     -3.32624538       1     127     -0.00032695      0.00024941      0.00031858
H              -0.29495063     -1.52587809     -2.81249844       1     127     -0.00038151     -0.00072369     -0.00033422
10
energy=-0.00296033 ediff_cc=-0.00023337 cutoff=-1.00000000 nneightol=1.20000000 pbc="T T T" Lattice="30.00000000       0.00000000       0.00000000       0.00000000      30.00000000       0.00000000       0.00000000       0.00000000      30.00000000" Properties=species:S:1:pos:R:3:Z:I:1:resid:I:1:force:R:3
C               2.32072819      0.31963709      1.55089852       6     107      0.00138975      0.00038737     -0.00171139
H               2.88639787      0.12152050      2.45903452       1     107     -0.00035520     -0.00020070      0.00085477
H               2.53716943      1.32703125      1.20126805       1     107     -0.00044689      0.00034509     -0.00035712
H               1.25663363      0.22886616      1.75934798       1     107     -0.00267150     -0.00055123      0.00016670
H               2.60266454     -0.39886954      0.78396717       1     107     -0.00080802     -0.00035496     -0.00070209
C              -2.32072819     -0.31963709     -1.55089852       6     165     -0.00055276     -0.00055668     -0.00115125
H              -3.23621269     -0.89448023     -1.42676516       1     165     -0.00067628     -0.00036628      0.00016343
H              -1.61064297     -0.89209214     -2.14423232       1     165      0.00100776      0.00002170      0.00053168
H              -1.88999026     -0.10816140     -0.57433549       1     165      0.00290264      0.00073193      0.00200311
H              -2.54606092      0.61613812     -2.05828475       1     165      0.00021051      0.00054374      0.00020214
10
energy=-0.00366109 ediff_cc=-0.00024708 cutoff=-1.00000000 nneightol=1.20000000 pbc="T T T" Lattice="30.00000000       0.00000000       0.00000000       0.00000000      30.00000000       0.00000000       0.00000000       0.00000000      30.00000000" Properties=species:S:1:pos:R:3:Z:I:1:resid:I:1:force:R:3
C               2.62073350     -0.67590418      0.67907153       6     110     -0.00091063      0.00033067      0.00121752
H               2.51659058      0.21452799      1.29578046       1     110      0.00039454      0.00104298      0.00121563
H               3.62762521     -0.71702144      0.26847855       1     110      0.00019055      0.00052683     -0.00052943
H               1.89857786     -0.64040258     -0.13416094       1     110     -0.00300594     -0.00062472     -0.00287162
H               2.44016447     -1.56074479      1.28611576       1     110     -0.00070220     -0.00010016      0.00007556
C              -2.62073350      0.67590418     -0.67907153       6     187      0.00007462     -0.00117575     -0.00163910
H              -2.82610307     -0.39032478     -0.60789983       1     187      0.00007529     -0.00077815      0.00043322
H              -2.65283681      0.98262064     -1.72259374       1     187     -0.00031396      0.00041009     -0.00078528
H              -1.63384611      0.88329811     -0.27023796       1     187      0.00408755      0.00007286      0.00245818
H              -3.37014803      1.22804684     -0.11550639       1     187      0.00011021      0.00029538      0.00042533
10
energy=-0.01318784 ediff_cc=-0.00310812 cutoff=-1.00000000 nneightol=1.20000000 pbc="T T T" Lattice="30.00000000       0.00000000       0.00000000       0.00000000      30.00000000       0.00000000       0.00000000       0.00000000      30.00000000" Properties=species:S:1:pos:R:3:Z:I:1:resid:I:1:force:R:3
C              -1.97267346      0.28198149     -0.20120579       6      48     -0.00052216      0.00837611     -0.01620988
H              -2.28366124      1.10079749      0.44434169       1      48     -0.00068701      0.00121206      0.00400489
H              -1.88320786     -0.62936604      0.38647667       1      48      0.00084564     -0.00577629      0.00541078
H              -1.01060626      0.51967084     -0.65056539       1      48     -0.00562012      0.00557122      0.00114938
H              -2.71316951      0.13680264     -0.98512509       1      48     -0.00753965     -0.00142867      0.00071878
C               1.97267346     -0.28198149      0.20120579       6      60     -0.00203475     -0.01396145      0.00259675
H               1.87505683      0.63510212      0.77858318       1      60     -0.00691391      0.00366794      0.00394189
H               1.00757104     -0.78163213      0.14804046       1      60      0.00954132      0.00019901      0.00642384
H               2.69483579     -0.93840356      0.68243521       1      60      0.00877859      0.00159394     -0.00104007
H               2.31332808     -0.04309519     -0.80418674       1      60      0.00415205      0.00054616     -0.00699634
10
energy=-0.00016733 ediff_cc=-0.00361078 cutoff=-1.00000000 nneightol=1.20000000 pbc="T T T" Lattice="30.00000000       0.00000000       0.00000000       0.00000000      30.00000000       0.00000000       0.00000000       0.00000000      30.00000000" Properties=species:S:1:pos:R:3:Z:I:1:resid:I:1:force:R:3
C              -1.18857277     -1.00841716     -1.41671000       6      97     -0.00806667     -0.00563617     -0.00682345
H              -0.86636690     -0.79472815     -0.39967243       1      97     -0.02554221     -0.02430624     -0.02889898
H              -0.80002762     -0.24545742     -2.08810975       1      97      0.00508299      0.00578215      0.00467722
H              -2.27578798     -1.00999499     -1.45992355       1      97     -0.00292405     -0.00036873      0.00095718
H              -0.81217923     -1.98344101     -1.71911070       1      97      0.00203287     -0.00260875      0.00204885
C               1.18857277      1.00841716      1.41671000       6     198      0.00064171     -0.00002684      0.01101246
H               0.43543244      0.38908639      0.93394272       1     198      0.03051549      0.02895092      0.01854799
H               1.94067692      1.29993759      0.68664813       1     198     -0.00192556     -0.00327121     -0.00625541
H               1.66104876      0.44541702      2.21913985       1     198      0.00239451     -0.00047585      0.00338773
H               0.71708587      1.89892151      1.82722702       1     198     -0.00220911      0.00196074      0.00134635
10
energy=-0.00034455 ediff_cc=-0.00003303 cutoff=-1.00000000 nneightol=1.20000000 pbc="T T T" Lattice="30.00000000       0.00000000       0.00000000       0.00000000      30.00000000       0.00000000       0.00000000       0.00000000      30.00000000" Properties=species:S:1:pos:R:3:Z:I:1:resid:I:1:force:R:3
C              -1.64266803     -3.50748500     -0.60054466       6      32     -0.00003066     -0.00013027      0.00003992
H              -1.07134370     -3.91434365     -1.43250764       1      32      0.00007462      0.00006137     -0.00005328
H              -1.73238506     -2.42908840     -0.71510605       1      32      0.00016949      0.00032431     -0.00002733
H              -1.13234267     -3.73175342      0.33399991       1      32      0.00006014      0.00007789      0.00008726
H              -2.63457678     -3.95473061     -0.58856485       1      32     -0.00014699     -0.00008922     -0.00000150
C               1.64266803      3.50748500      0.60054466       6     106      0.00021576     -0.00003172      0.00000329
H               2.17386838      2.77953920      1.21048665       1     106     -0.00001107     -0.00016732     -0.00001151
H               1.59252501      4.45678199      1.13009520       1     106     -0.00007074      0.00010646      0.00004894
H               0.63454709      3.14859335      0.40310499       1     106     -0.00028149     -0.00012756      0.00001423
H               2.16973164      3.64500155     -0.34143648       1     106      0.00002095     -0.00002391     -0.00010006
10
energy=-0.00014149 ediff_cc=-0.00000438 cutoff=-1.00000000 nneightol=1.20000000 pbc="T T T" Lattice="30.00000000       0.00000000       0.00000000       0.00000000      30.00000000       0.00000000       0.00000000       0.00000000      30.00000000" Properties=species:S:1:pos:R:3:Z:I:1:resid:I:1:force:R:3
C              -1.74456624     -4.12633136      0.76206823       6     101      0.00002447      0.00006055     -0.00002098
H              -1.99809069     -3.44161744      1.56908664       1     101      0.00000611      0.00008606      0.00005569
H              -2.42513609     -3.97094634     -0.07265627       1     101     -0.00009789      0.00000298     -0.00006411
H              -1.83228122     -5.15173183      1.11551557       1     101     -0.00001386     -0.00009093      0.00001832
H              -0.72298301     -3.94105494      0.43642746       1     101      0.00011679      0.00002921     -0.00000824
C               1.74456624      4.12633136     -0.76206823       6     190      0.00002501     -0.00003616     -0.00002082
H               1.24666059      3.32453862     -1.30355528       1     190     -0.00008588     -0.00010345      0.00002412
H               1.25482421      5.07240659     -0.98371696       1     190     -0.00002729      0.00006753     -0.00001649
H               2.78757583      4.17744816     -1.06794047       1     190      0.00007381      0.00003379     -0.00002496
H               1.68925455      3.93098230      0.30693979       1     190     -0.00002127     -0.00004958      0.00005747
10
energy=-0.01230732 ediff_cc=-0.00193442 cutoff=-1.00000000 nneightol=1.20000000 pbc="T T T" Lattice="30.00000000       0.00000000       0.00000000       0.00000000      30.00000000       0.00000000       0.00000000       0.00000000      30.00000000" Properties=species:S:1:pos:R:3:Z:I:1:resid:I:1:force:R:3
C               1.11350759     -1.63947285     -0.70635034       6      42      0.00064989     -0.00221329     -0.00321979
H               1.20238645     -2.58573106     -1.23606834       1      42      0.00163248     -0.00344833     -0.00145534
H               0.16285676     -1.60750208     -0.17798791       1      42      0.00062487      0.00129306      0.00304503
H               1.15990364     -0.81889815     -1.41942735       1      42     -0.00459682      0.00571759      0.00077985
H               1.92884004     -1.54570896      0.00800549       1      42     -0.00086398      0.00189739      0.00369761
C              -1.11350759      1.63947285      0.70635034       6     146     -0.00349445      0.00049137      0.00121095
H              -0.31878481      2.02700724      0.07217731       1     146      0.00408351     -0.00568292     -0.00323287
H              -1.36068801      0.62533250      0.39914920       1     146      0.00278069      0.00016854     -0.00448211
H              -1.99397865      2.27176782      0.61174231       1     146     -0.00270156      0.00290916      0.00134025
H              -0.78067609      1.63370788      1.74225582       1     146      0.00188533     -0.00113254      0.00231644
10
energy=-0.00435613 ediff_cc=-0.00533524 cutoff=-1.00000000 nneightol=1.20000000 pbc="T T T" Lattice="30.00000000       0.00000000       0.00000000       0.00000000      30.00000000       0.00000000       0.00000000       0.00000000      30.00000000" Properties=species:S:1:pos:R:3:Z:I:1:resid:I:1:force:R:3
C              -0.79337287     -1.57286744      0.34359141       6      30      0.00197194     -0.05780790      0.01466075
H               0.24779348     -1.49579793      0.03716839       1      30     -0.01567264      0.00381448      0.00678191
H              -0.98243652     -2.56897963      0.73846643       1      30     -0.01541301     -0.00941783      0.00041612