Title Card Required                                                     
Freq      RB3LYP                                                      6-311G(d,p)         
Number of atoms                            I                2
Info1-9                                    I   N=           9
          13          13        1002           0           0         100
           6          18        -502
Charge                                     I                0
Multiplicity                               I                1
Number of electrons                        I               14
Number of alpha electrons                  I                7
Number of beta electrons                   I                7
Number of basis functions                  I               36
Number of independent functions            I               36
Number of point charges in /Mol/           I                0
Number of translation vectors              I                0
Atomic numbers                             I   N=           2
           7           7
Nuclear charges                            R   N=           2
  7.00000000E+00  7.00000000E+00
Current cartesian coordinates              R   N=           6
  0.00000000E+00  0.00000000E+00  1.03504015E+00  1.26755860E-16  0.00000000E+00
 -1.03504015E+00
Force Field                                I                0
Int Atom Types                             I   N=           2
           0           0
MM charges                                 R   N=           2
  0.00000000E+00  0.00000000E+00
Integer atomic weights                     I   N=           2
          14          14
Real atomic weights                        R   N=           2
  1.40030740E+01  1.40030740E+01
Atom fragment info                         I   N=           2
           0           0
Atom residue num                           I   N=           2
           0           0
Nuclear spins                              I   N=           2
           2           2
Nuclear ZEff                               R   N=           2
 -4.55000000E+00 -4.55000000E+00
Nuclear ZNuc                               R   N=           2
  7.00000000E+00  7.00000000E+00
Nuclear QMom                               R   N=           2
  2.04400000E+00  2.04400000E+00
Nuclear GFac                               R   N=           2
  4.03761000E-01  4.03761000E-01
MicOpt                                     I   N=           2
          -1          -1
Number of contracted shells                I               10
Number of primitive shells                 I               24
Pure/Cartesian d shells                    I                0
Pure/Cartesian f shells                    I                0
Highest angular momentum                   I                2
Largest degree of contraction              I                6
Shell types                                I   N=          10
           0          -1          -1          -1          -2           0
          -1          -1          -1          -2
Number of primitives per shell             I   N=          10
           6           3           1           1           1           6
           3           1           1           1
Shell to atom map                          I   N=          10
           1           1           1           1           1           2
           2           2           2           2
Primitive exponents                        R   N=          24
  6.29348000E+03  9.49044000E+02  2.18776000E+02  6.36916000E+01  1.88282000E+01
  2.72023000E+00  3.06331000E+01  7.02614000E+00  2.11205000E+00  6.84009000E-01
  2.00878000E-01  9.13000000E-01  6.29348000E+03  9.49044000E+02  2.18776000E+02
  6.36916000E+01  1.88282000E+01  2.72023000E+00  3.06331000E+01  7.02614000E+00
  2.11205000E+00  6.84009000E-01  2.00878000E-01  9.13000000E-01
Contraction coefficients                   R   N=          24
  1.96978815E-03  1.49612859E-02  7.35005308E-02  2.48936766E-01  6.02459433E-01
  2.56201759E-01  1.11906080E-01  9.21666655E-01 -2.56919183E-03  1.00000000E+00
  1.00000000E+00  1.00000000E+00  1.96978815E-03  1.49612859E-02  7.35005308E-02
  2.48936766E-01  6.02459433E-01  2.56201759E-01  1.11906080E-01  9.21666655E-01
 -2.56919183E-03  1.00000000E+00  1.00000000E+00  1.00000000E+00
P(S=P) Contraction coefficients            R   N=          24
  0.00000000E+00  0.00000000E+00  0.00000000E+00  0.00000000E+00  0.00000000E+00
  0.00000000E+00  3.83119186E-02  2.37403116E-01  8.17592398E-01  1.00000000E+00
  1.00000000E+00  0.00000000E+00  0.00000000E+00  0.00000000E+00  0.00000000E+00
  0.00000000E+00  0.00000000E+00  0.00000000E+00  3.83119186E-02  2.37403116E-01
  8.17592398E-01  1.00000000E+00  1.00000000E+00  0.00000000E+00
Coordinates of each shell                  R   N=          30
  0.00000000E+00  0.00000000E+00  1.03504015E+00  0.00000000E+00  0.00000000E+00
  1.03504015E+00  0.00000000E+00  0.00000000E+00  1.03504015E+00  0.00000000E+00
  0.00000000E+00  1.03504015E+00  0.00000000E+00  0.00000000E+00  1.03504015E+00
  1.26755860E-16  0.00000000E+00 -1.03504015E+00  1.26755860E-16  0.00000000E+00
 -1.03504015E+00  1.26755860E-16  0.00000000E+00 -1.03504015E+00  1.26755860E-16
  0.00000000E+00 -1.03504015E+00  1.26755860E-16  0.00000000E+00 -1.03504015E+00
Constraint Structure                       R   N=           6
  0.00000000E+00  0.00000000E+00  1.03504015E+00  1.26755860E-16  0.00000000E+00
 -1.03504015E+00
Num ILSW                                   I              100
ILSW                                       I   N=         100
           0           0           0           0           2           0
           0           0           0           0         402          -1
           5           0           0           0           2           0
           0           0           1           0           1           0
           1           0           0           0           0           0
           0           0      100000           0          -1           0
           0           0           0           0           0           0
           0           0           0           1           0           0
           0           0           1           0           0           0
           0           0           4          41           0           0
           0           0           5           0           0           0
           0           0           0           0           0           0
           0           0           0           0           0           0
           0           0           0           0           0           0
           0           0           0           0           0           0
           0           0           0           0           0           0
           0           0           0           0
Num RLSW                                   I               41
RLSW                                       R   N=          41
  8.00000000E-01  7.20000000E-01  1.00000000E+00  8.10000000E-01  2.00000000E-01
  0.00000000E+00  0.00000000E+00  1.00000000E+00  0.00000000E+00  0.00000000E+00
  0.00000000E+00  0.00000000E+00  1.00000000E+00  0.00000000E+00  0.00000000E+00
  0.00000000E+00  0.00000000E+00  1.00000000E+00  0.00000000E+00  0.00000000E+00
  0.00000000E+00  0.00000000E+00  1.00000000E+00  0.00000000E+00  0.00000000E+00
  0.00000000E+00  0.00000000E+00  1.00000000E+00  0.00000000E+00  0.00000000E+00
  0.00000000E+00  0.00000000E+00  1.00000000E+00  0.00000000E+00  0.00000000E+00
  0.00000000E+00  0.00000000E+00  0.00000000E+00  1.00000000E+00  1.00000000E+00
  0.00000000E+00
MxBond                                     I                1
NBond                                      I   N=           2
           1           1
IBond                                      I   N=           2
           2           1
RBond                                      R   N=           2
  3.00000000E+00  3.00000000E+00
Virial Ratio                               R      2.002782569635831E+00
SCF Energy                                 R     -1.095559297491904E+02
Total Energy                               R     -1.095559297491904E+02
RMS Force                                  R      8.274461262823942E-09
External E-field                           R   N=          35
  0.00000000E+00  0.00000000E+00  0.00000000E+00  0.00000000E+00  0.00000000E+00
  0.00000000E+00  0.00000000E+00  0.00000000E+00  0.00000000E+00  0.00000000E+00
  0.00000000E+00  0.00000000E+00  0.00000000E+00  0.00000000E+00  0.00000000E+00
  0.00000000E+00  0.00000000E+00  0.00000000E+00  0.00000000E+00  0.00000000E+00
  0.00000000E+00  0.00000000E+00  0.00000000E+00  0.00000000E+00  0.00000000E+00
  0.00000000E+00  0.00000000E+00  0.00000000E+00  0.00000000E+00  0.00000000E+00
  0.00000000E+00  0.00000000E+00  0.00000000E+00  0.00000000E+00  0.00000000E+00
IOpCl                                      I                0
IROHF                                      I                0
Alpha Orbital Energies                     R   N=          36
 -1.44139193E+01 -1.44122067E+01 -1.13257177E+00 -5.52267146E-01 -4.69373571E-01
 -4.69373571E-01 -4.31551028E-01 -2.40993849E-02 -2.40993849E-02  3.91438045E-01
  5.06854948E-01  5.06854948E-01  5.11179115E-01  6.02641920E-01  6.64556119E-01
  6.64556119E-01  7.61144617E-01  1.10948642E+00  1.67020624E+00  1.67020625E+00
  1.70316533E+00  1.70316533E+00  2.16348036E+00  2.16348037E+00  2.41425470E+00
  2.82819314E+00  2.82819314E+00  3.09528379E+00  3.51659734E+00  3.51659734E+00
  3.86571848E+00  3.86571848E+00  4.11681367E+00  4.28242311E+00  3.49133359E+01
  3.62995517E+01
Alpha MO coefficients                      R   N=        1296
  3.93918944E-01  3.29832121E-01  0.00000000E+00  0.00000000E+00 -1.35076404E-03
  8.57482694E-03  0.00000000E+00  0.00000000E+00  3.32647319E-04 -2.37989599E-03
  0.00000000E+00  0.00000000E+00  2.40292138E-04  1.81250907E-05  0.00000000E+00
  0.00000000E+00 -3.22318906E-16  0.00000000E+00  3.93918944E-01  3.29832121E-01
  0.00000000E+00  0.00000000E+00  1.35076404E-03  8.57482694E-03  0.00000000E+00
  0.00000000E+00 -3.32647319E-04 -2.37989599E-03  0.00000000E+00  0.00000000E+00
 -2.40292138E-04  1.81250907E-05  0.00000000E+00  0.00000000E+00 -3.22318906E-16
  0.00000000E+00  3.94102844E-01  3.29087483E-01  0.00000000E+00  0.00000000E+00
 -3.51758705E-04  1.29296370E-02  0.00000000E+00  0.00000000E+00 -6.55604474E-03
 -4.33791763E-03  0.00000000E+00  0.00000000E+00  1.79180365E-03  3.52677380E-03
  0.00000000E+00  0.00000000E+00 -1.07769696E-16  0.00000000E+00 -3.94102844E-01
 -3.29087483E-01  0.00000000E+00  0.00000000E+00 -3.51758705E-04 -1.29296370E-02
  0.00000000E+00  0.00000000E+00 -6.55604474E-03  4.33791763E-03  0.00000000E+00
  0.00000000E+00  1.79180365E-03 -3.52677380E-03  0.00000000E+00  0.00000000E+00
  1.07769696E-16  0.00000000E+00 -9.03869433E-02 -1.41092086E-01  0.00000000E+00
  0.00000000E+00 -1.14337105E-01  3.89488152E-01  0.00000000E+00  0.00000000E+00
 -1.45212864E-01  1.54856687E-01  0.00000000E+00  0.00000000E+00 -3.13644680E-02
  2.46036425E-02  0.00000000E+00  0.00000000E+00 -1.80411242E-16  0.00000000E+00
 -9.03869433E-02 -1.41092086E-01  0.00000000E+00  0.00000000E+00  1.14337105E-01
  3.89488152E-01  0.00000000E+00  0.00000000E+00  1.45212864E-01  1.54856687E-01
  0.00000000E+00  0.00000000E+00  3.13644680E-02  2.46036425E-02  0.00000000E+00
  0.00000000E+00 -1.80411242E-16  0.00000000E+00 -8.41595391E-02 -1.35388236E-01
  0.00000000E+00  0.00000000E+00  9.76794723E-02  3.98327927E-01  0.00000000E+00
  0.00000000E+00  1.28741687E-01  4.73447307E-01  0.00000000E+00  0.00000000E+00
  6.34848037E-02 -1.02597465E-02  0.00000000E+00  0.00000000E+00  5.72458747E-17
  0.00000000E+00  8.41595391E-02  1.35388236E-01  0.00000000E+00  0.00000000E+00
  9.76794723E-02 -3.98327927E-01  0.00000000E+00  0.00000000E+00  1.28741687E-01
 -4.73447307E-01  0.00000000E+00  0.00000000E+00  6.34848037E-02  1.02597465E-02
  0.00000000E+00  0.00000000E+00 -5.72458747E-17  0.00000000E+00  0.00000000E+00
  0.00000000E+00  2.07565337E-01  0.00000000E+00  0.00000000E+00  0.00000000E+00
  3.07931167E-01  0.00000000E+00  0.00000000E+00  0.00000000E+00  2.18772974E-01
  0.00000000E+00  0.00000000E+00  0.00000000E+00 -3.84778064E-02  0.00000000E+00
  0.00000000E+00  0.00000000E+00  0.00000000E+00  0.00000000E+00  2.07565337E-01
  0.00000000E+00  0.00000000E+00  0.00000000E+00  3.07931167E-01  0.00000000E+00
  0.00000000E+00  0.00000000E+00  2.18772974E-01  0.00000000E+00  0.00000000E+00
  0.00000000E+00  3.84778064E-02  0.00000000E+00  0.00000000E+00  0.00000000E+00
  0.00000000E+00  0.00000000E+00  0.00000000E+00  2.07565337E-01  0.00000000E+00
  0.00000000E+00  0.00000000E+00  3.07931167E-01  0.00000000E+00  0.00000000E+00
  0.00000000E+00  2.18772974E-01  0.00000000E+00  0.00000000E+00  0.00000000E+00
 -3.84778064E-02  0.00000000E+00  0.00000000E+00  0.00000000E+00  0.00000000E+00
  0.00000000E+00  2.07565337E-01  0.00000000E+00  0.00000000E+00  0.00000000E+00
  3.07931167E-01  0.00000000E+00  0.00000000E+00  0.00000000E+00  2.18772974E-01
  0.00000000E+00  0.00000000E+00  0.00000000E+00  3.84778064E-02  0.00000000E+00
  0.00000000E+00 -3.04209060E-02 -4.83164662E-02  0.00000000E+00  0.00000000E+00
  2.19773781E-01  1.22587461E-01  0.00000000E+00  0.00000000E+00  2.96173482E-01
  3.20676825E-01  0.00000000E+00  0.00000000E+00  1.92028132E-01 -2.40639636E-02
  0.00000000E+00  0.00000000E+00  4.33680869E-18  0.00000000E+00 -3.04209060E-02
 -4.83164662E-02  0.00000000E+00  0.00000000E+00 -2.19773781E-01  1.22587461E-01
  0.00000000E+00  0.00000000E+00 -2.96173482E-01  3.20676825E-01  0.00000000E+00
  0.00000000E+00 -1.92028132E-01 -2.40639636E-02  0.00000000E+00  0.00000000E+00
  4.33680869E-18  0.00000000E+00  0.00000000E+00  0.00000000E+00  2.32114589E-01
  0.00000000E+00  0.00000000E+00  0.00000000E+00  3.34939368E-01  0.00000000E+00
  0.00000000E+00  0.00000000E+00  5.74636221E-01  0.00000000E+00  0.00000000E+00
  0.00000000E+00  1.60361863E-02  0.00000000E+00  0.00000000E+00  0.00000000E+00
  0.00000000E+00  0.00000000E+00 -2.32114589E-01  0.00000000E+00  0.00000000E+00
  0.00000000E+00 -3.34939368E-01  0.00000000E+00  0.00000000E+00  0.00000000E+00
 -5.74636221E-01  0.00000000E+00  0.00000000E+00  0.00000000E+00  1.60361863E-02
  0.00000000E+00  0.00000000E+00  0.00000000E+00  0.00000000E+00  0.00000000E+00
  0.00000000E+00  2.32114589E-01  0.00000000E+00  0.00000000E+00  0.00000000E+00
  3.34939368E-01  0.00000000E+00  0.00000000E+00  0.00000000E+00  5.74636221E-01
  0.00000000E+00  0.00000000E+00  0.00000000E+00  1.60361863E-02  0.00000000E+00
  0.00000000E+00  0.00000000E+00  0.00000000E+00  0.00000000E+00 -2.32114589E-01
  0.00000000E+00  0.00000000E+00  0.00000000E+00 -3.34939368E-01  0.00000000E+00
  0.00000000E+00  0.00000000E+00 -5.74636221E-01  0.00000000E+00  0.00000000E+00
  0.00000000E+00  1.60361863E-02  0.00000000E+00  0.00000000E+00 -5.51863077E-02
 -9.15097159E-02  0.00000000E+00  0.00000000E+00 -4.86247357E-02  2.74305501E-01
  0.00000000E+00  0.00000000E+00  3.70121260E-02  4.01271632E+00  0.00000000E+00
  0.00000000E+00 -2.63091358E+00 -2.77086504E-02  0.00000000E+00  0.00000000E+00
  2.92767996E-16  0.00000000E+00  5.51863077E-02  9.15097159E-02  0.00000000E+00
  0.00000000E+00 -4.86247357E-02 -2.74305501E-01  0.00000000E+00  0.00000000E+00
  3.70121260E-02 -4.01271632E+00  0.00000000E+00  0.00000000E+00 -2.63091358E+00
  2.77086504E-02  0.00000000E+00  0.00000000E+00 -2.92767996E-16  0.00000000E+00
  0.00000000E+00  0.00000000E+00 -1.56389144E-01  0.00000000E+00  0.00000000E+00
  0.00000000E+00 -5.50779504E-01  0.00000000E+00  0.00000000E+00  0.00000000E+00
  6.83100395E-01  0.00000000E+00  0.00000000E+00  0.00000000E+00  5.32151792E-02
  0.00000000E+00  0.00000000E+00  0.00000000E+00  0.00000000E+00  0.00000000E+00
 -1.56389144E-01  0.00000000E+00  0.00000000E+00  0.00000000E+00 -5.50779504E-01
  0.00000000E+00  0.00000000E+00  0.00000000E+00  6.83100395E-01  0.00000000E+00
  0.00000000E+00  0.00000000E+00 -5.32151792E-02  0.00000000E+00  0.00000000E+00
  0.00000000E+00  0.00000000E+00  0.00000000E+00  0.00000000E+00 -1.56389144E-01
  0.00000000E+00  0.00000000E+00  0.00000000E+00 -5.50779504E-01  0.00000000E+00
  0.00000000E+00  0.00000000E+00  6.83100395E-01  0.00000000E+00  0.00000000E+00
  0.00000000E+00  5.32151792E-02  0.00000000E+00  0.00000000E+00  0.00000000E+00
  0.00000000E+00  0.00000000E+00 -1.56389144E-01  0.00000000E+00  0.00000000E+00
  0.00000000E+00 -5.50779504E-01  0.00000000E+00  0.00000000E+00  0.00000000E+00
  6.83100395E-01  0.00000000E+00  0.00000000E+00  0.00000000E+00 -5.32151792E-02
  0.00000000E+00  0.00000000E+00 -1.22216144E-02 -2.80024692E-02  0.00000000E+00
  0.00000000E+00 -9.87142958E-02  3.37421060E-01  0.00000000E+00  0.00000000E+00
 -3.92106741E-01  1.36384996E-02  0.00000000E+00  0.00000000E+00  1.05469532E+00
  3.48723949E-02  0.00000000E+00  0.00000000E+00  1.89091578E-16  0.00000000E+00
 -1.22216144E-02 -2.80024692E-02  0.00000000E+00  0.00000000E+00  9.87142958E-02
  3.37421060E-01  0.00000000E+00  0.00000000E+00  3.92106741E-01  1.36384996E-02
  0.00000000E+00  0.00000000E+00 -1.05469532E+00  3.48723949E-02  0.00000000E+00
  0.00000000E+00  1.89091578E-16  0.00000000E+00 -8.10837220E-02 -1.59122191E-01
  0.00000000E+00  0.00000000E+00  8.23535201E-02  1.08595442E+00  0.00000000E+00
  0.00000000E+00  2.13485991E-01 -9.16739594E-01  0.00000000E+00  0.00000000E+00
 -1.78339421E-01  3.44158737E-02  0.00000000E+00  0.00000000E+00 -1.09678281E-17
  0.00000000E+00 -8.10837220E-02 -1.59122191E-01  0.00000000E+00  0.00000000E+00
 -8.23535201E-02  1.08595442E+00  0.00000000E+00  0.00000000E+00 -2.13485991E-01
 -9.16739594E-01  0.00000000E+00  0.00000000E+00  1.78339421E-01  3.44158737E-02
  0.00000000E+00  0.00000000E+00 -1.09678281E-17  0.00000000E+00  0.00000000E+00
  0.00000000E+00  0.00000000E+00 -1.93360418E-01  0.00000000E+00  0.00000000E+00
  0.00000000E+00 -6.06696723E-01  0.00000000E+00  0.00000000E+00  0.00000000E+00
  1.31833314E+00  0.00000000E+00  0.00000000E+00  0.00000000E+00 -7.66116916E-03
  0.00000000E+00  0.00000000E+00  0.00000000E+00  0.00000000E+00  0.00000000E+00
  1.93360418E-01  0.00000000E+00  0.00000000E+00  0.00000000E+00  6.06696723E-01
  0.00000000E+00  0.00000000E+00  0.00000000E+00 -1.31833314E+00  0.00000000E+00
  0.00000000E+00  0.00000000E+00 -7.66116916E-03  0.00000000E+00  0.00000000E+00
  0.00000000E+00  0.00000000E+00 -1.93360418E-01  0.00000000E+00  0.00000000E+00
  0.00000000E+00 -6.06696723E-01  0.00000000E+00  0.00000000E+00  0.00000000E+00
  1.31833314E+00  0.00000000E+00  0.00000000E+00  0.00000000E+00 -7.66116916E-03
  0.00000000E+00  0.00000000E+00  0.00000000E+00  0.00000000E+00  0.00000000E+00
  1.93360418E-01  0.00000000E+00  0.00000000E+00  0.00000000E+00  6.06696723E-01
  0.00000000E+00  0.00000000E+00  0.00000000E+00 -1.31833314E+00  0.00000000E+00
  0.00000000E+00  0.00000000E+00 -7.66116916E-03  0.00000000E+00  0.00000000E+00
  0.00000000E+00  6.11936624E-03  1.49389572E-02  0.00000000E+00  0.00000000E+00
 -2.48192651E-01 -3.22378601E-01  0.00000000E+00  0.00000000E+00 -8.25503450E-01
  2.59907365E+00  0.00000000E+00  0.00000000E+00 -6.56800844E-01 -1.04876604E-02
  0.00000000E+00  0.00000000E+00 -1.12052963E-16  0.00000000E+00 -6.11936624E-03
 -1.49389572E-02  0.00000000E+00  0.00000000E+00 -2.48192651E-01  3.22378601E-01
  0.00000000E+00  0.00000000E+00 -8.25503450E-01 -2.59907365E+00  0.00000000E+00
  0.00000000E+00 -6.56800844E-01  1.04876604E-02  0.00000000E+00  0.00000000E+00
  1.12052963E-16  0.00000000E+00  8.73488996E-02  1.65566694E-01  0.00000000E+00
  0.00000000E+00  2.12955317E-01 -1.30024178E+00  0.00000000E+00  0.00000000E+00
  5.99933037E-02  6.66832325E+00  0.00000000E+00  0.00000000E+00 -3.03842075E+00
  2.39502985E-01  0.00000000E+00  0.00000000E+00  4.32669596E-16  0.00000000E+00
 -8.73488996E-02 -1.65566694E-01  0.00000000E+00  0.00000000E+00  2.12955317E-01
  1.30024178E+00  0.00000000E+00  0.00000000E+00  5.99933037E-02 -6.66832325E+00
  0.00000000E+00  0.00000000E+00 -3.03842075E+00 -2.39502985E-01  0.00000000E+00
  0.00000000E+00 -4.32669596E-16  0.00000000E+00  0.00000000E+00  0.00000000E+00
  0.00000000E+00  0.00000000E+00  0.00000000E+00  0.00000000E+00  0.00000000E+00
  0.00000000E+00  0.00000000E+00  0.00000000E+00  0.00000000E+00  0.00000000E+00
  0.00000000E+00  0.00000000E+00  0.00000000E+00  0.00000000E+00  0.00000000E+00
  6.61861787E-01  0.00000000E+00  0.00000000E+00  0.00000000E+00  0.00000000E+00
  0.00000000E+00  0.00000000E+00  0.00000000E+00  0.00000000E+00  0.00000000E+00
  0.00000000E+00  0.00000000E+00  0.00000000E+00  0.00000000E+00  0.00000000E+00
  0.00000000E+00  0.00000000E+00  0.00000000E+00  6.61861787E-01  2.00308168E-16
  1.70369211E-16  0.00000000E+00  0.00000000E+00 -4.05231285E-16 -5.97082112E-16
  0.00000000E+00  0.00000000E+00  8.66589838E-16  2.32446414E-16  0.00000000E+00
  0.00000000E+00 -1.11839596E-15  9.04369708E-16  0.00000000E+00  0.00000000E+00
  6.61861787E-01  0.00000000E+00  2.00308168E-16  1.70369211E-16  0.00000000E+00
  0.00000000E+00  4.05231285E-16 -5.97082112E-16  0.00000000E+00  0.00000000E+00
 -8.66589838E-16  2.32446414E-16  0.00000000E+00  0.00000000E+00  1.11839596E-15
  9.04369708E-16  0.00000000E+00  0.00000000E+00  6.61861787E-01  0.00000000E+00
  0.00000000E+00  0.00000000E+00  9.11100798E-02  0.00000000E+00  0.00000000E+00
  0.00000000E+00  1.71841333E-01  0.00000000E+00  0.00000000E+00  0.00000000E+00
 -5.80592791E-02  0.00000000E+00  0.00000000E+00  0.00000000E+00  6.04761509E-01
  0.00000000E+00  0.00000000E+00  0.00000000E+00  0.00000000E+00  0.00000000E+00
  9.11100798E-02  0.00000000E+00  0.00000000E+00  0.00000000E+00  1.71841333E-01
  0.00000000E+00  0.00000000E+00  0.00000000E+00 -5.80592791E-02  0.00000000E+00
  0.00000000E+00  0.00000000E+00 -6.04761509E-01  0.00000000E+00  0.00000000E+00
  0.00000000E+00  0.00000000E+00  0.00000000E+00  0.00000000E+00  9.11100798E-02
  0.00000000E+00  0.00000000E+00  0.00000000E+00  1.71841333E-01  0.00000000E+00
  0.00000000E+00  0.00000000E+00 -5.80592791E-02  0.00000000E+00  0.00000000E+00
  0.00000000E+00  6.04761509E-01  0.00000000E+00  0.00000000E+00  0.00000000E+00
  0.00000000E+00  0.00000000E+00  9.11100798E-02  0.00000000E+00  0.00000000E+00
  0.00000000E+00  1.71841333E-01  0.00000000E+00  0.00000000E+00  0.00000000E+00
 -5.80592791E-02  0.00000000E+00  0.00000000E+00  0.00000000E+00 -6.04761509E-01
  0.00000000E+00  0.00000000E+00  0.00000000E+00  0.00000000E+00  0.00000000E+00
  0.00000000E+00  0.00000000E+00  0.00000000E+00  0.00000000E+00  0.00000000E+00
  0.00000000E+00  0.00000000E+00  0.00000000E+00  0.00000000E+00  0.00000000E+00
  0.00000000E+00  0.00000000E+00  0.00000000E+00  0.00000000E+00  7.63111349E-01
  0.00000000E+00  0.00000000E+00  0.00000000E+00  0.00000000E+00  0.00000000E+00
  0.00000000E+00  0.00000000E+00  0.00000000E+00  0.00000000E+00  0.00000000E+00
  0.00000000E+00  0.00000000E+00  0.00000000E+00  0.00000000E+00  0.00000000E+00
  0.00000000E+00  0.00000000E+00 -7.63111349E-01 -6.46181979E-17 -9.53719536E-17
  0.00000000E+00  0.00000000E+00 -6.22394039E-16  1.44172211E-15  0.00000000E+00
  0.00000000E+00 -1.32238910E-15 -9.94646378E-16  0.00000000E+00  0.00000000E+00
  7.35316793E-16  1.43873365E-15  0.00000000E+00  0.00000000E+00  7.63111349E-01
  0.00000000E+00  6.46181979E-17  9.53719536E-17  0.00000000E+00  0.00000000E+00
 -6.22394039E-16 -1.44172211E-15  0.00000000E+00  0.00000000E+00 -1.32238910E-15
  9.94646378E-16  0.00000000E+00  0.00000000E+00  7.35316793E-16 -1.43873365E-15
  0.00000000E+00  0.00000000E+00 -7.63111349E-01  0.00000000E+00  1.47331963E-02
  4.65465819E-02  0.00000000E+00  0.00000000E+00 -1.56979950E-01 -5.39954975E-01
  0.00000000E+00  0.00000000E+00  4.77963006E-01  1.99005932E-01  0.00000000E+00
  0.00000000E+00 -5.77204461E-01  7.46080327E-01  0.00000000E+00  0.00000000E+00
 -8.45821209E-16  0.00000000E+00  1.47331963E-02  4.65465819E-02  0.00000000E+00
  0.00000000E+00  1.56979950E-01 -5.39954975E-01  0.00000000E+00  0.00000000E+00
 -4.77963006E-01  1.99005932E-01  0.00000000E+00  0.00000000E+00  5.77204461E-01
  7.46080327E-01  0.00000000E+00  0.00000000E+00 -8.45821209E-16  0.00000000E+00
  0.00000000E+00  0.00000000E+00  0.00000000E+00 -2.52324220E-01  0.00000000E+00
  0.00000000E+00  0.00000000E+00  5.26495554E-02  0.00000000E+00  0.00000000E+00
  0.00000000E+00 -4.44852662E-01  0.00000000E+00  0.00000000E+00  0.00000000E+00
  9.74359113E-01  0.00000000E+00  0.00000000E+00  0.00000000E+00  0.00000000E+00
  0.00000000E+00  2.52324220E-01  0.00000000E+00  0.00000000E+00  0.00000000E+00
 -5.26495554E-02  0.00000000E+00  0.00000000E+00  0.00000000E+00  4.44852662E-01
  0.00000000E+00  0.00000000E+00  0.00000000E+00  9.74359113E-01  0.00000000E+00
  0.00000000E+00  0.00000000E+00  0.00000000E+00 -2.52324220E-01  0.00000000E+00
  0.00000000E+00  0.00000000E+00  5.26495554E-02  0.00000000E+00  0.00000000E+00
  0.00000000E+00 -4.44852662E-01  0.00000000E+00  0.00000000E+00  0.00000000E+00
  9.74359113E-01  0.00000000E+00  0.00000000E+00  0.00000000E+00  0.00000000E+00
  0.00000000E+00  2.52324220E-01  0.00000000E+00  0.00000000E+00  0.00000000E+00
 -5.26495554E-02  0.00000000E+00  0.00000000E+00  0.00000000E+00  4.44852662E-01
  0.00000000E+00  0.00000000E+00  0.00000000E+00  9.74359113E-01  0.00000000E+00
  0.00000000E+00  0.00000000E+00 -3.30320822E-02 -7.54936849E-02  0.00000000E+00
  0.00000000E+00 -5.41416071E-01  4.55909172E-01  0.00000000E+00  0.00000000E+00
 -3.49058627E-01  2.75957193E+00  0.00000000E+00  0.00000000E+00 -1.41726787E+00
  1.01520097E+00  0.00000000E+00  0.00000000E+00 -9.33950776E-16  0.00000000E+00
  3.30320822E-02  7.54936849E-02  0.00000000E+00  0.00000000E+00 -5.41416071E-01
 -4.55909172E-01  0.00000000E+00  0.00000000E+00 -3.49058627E-01 -2.75957193E+00
  0.00000000E+00  0.00000000E+00 -1.41726787E+00 -1.01520097E+00  0.00000000E+00
  0.00000000E+00  9.33950776E-16  0.00000000E+00  0.00000000E+00  0.00000000E+00
 -9.04217397E-01  0.00000000E+00  0.00000000E+00  0.00000000E+00  9.56829535E-01
  0.00000000E+00  0.00000000E+00  0.00000000E+00 -3.42112697E-01  0.00000000E+00
  0.00000000E+00  0.00000000E+00  8.83030802E-02  0.00000000E+00  0.00000000E+00
  0.00000000E+00  0.00000000E+00  0.00000000E+00 -9.04217397E-01  0.00000000E+00
  0.00000000E+00  0.00000000E+00  9.56829535E-01  0.00000000E+00  0.00000000E+00
  0.00000000E+00 -3.42112697E-01  0.00000000E+00  0.00000000E+00  0.00000000E+00
 -8.83030802E-02  0.00000000E+00  0.00000000E+00  0.00000000E+00  0.00000000E+00
  0.00000000E+00  0.00000000E+00 -9.04217397E-01  0.00000000E+00  0.00000000E+00
  0.00000000E+00  9.56829535E-01  0.00000000E+00  0.00000000E+00  0.00000000E+00
 -3.42112697E-01  0.00000000E+00  0.00000000E+00  0.00000000E+00  8.83030802E-02
  0.00000000E+00  0.00000000E+00  0.00000000E+00  0.00000000E+00  0.00000000E+00
 -9.04217397E-01  0.00000000E+00  0.00000000E+00  0.00000000E+00  9.56829535E-01
  0.00000000E+00  0.00000000E+00  0.00000000E+00 -3.42112697E-01  0.00000000E+00
  0.00000000E+00  0.00000000E+00 -8.83030802E-02  0.00000000E+00  0.00000000E+00
  0.00000000E+00  0.00000000E+00 -8.90406701E-01  0.00000000E+00  0.00000000E+00
  0.00000000E+00  1.23347779E+00  0.00000000E+00  0.00000000E+00  0.00000000E+00
 -4.97728819E-01  0.00000000E+00  0.00000000E+00  0.00000000E+00 -4.29079150E-01
  0.00000000E+00  0.00000000E+00  0.00000000E+00  0.00000000E+00  0.00000000E+00
  8.90406701E-01  0.00000000E+00  0.00000000E+00  0.00000000E+00 -1.23347779E+00
  0.00000000E+00  0.00000000E+00  0.00000000E+00  4.97728819E-01  0.00000000E+00
  0.00000000E+00  0.00000000E+00 -4.29079150E-01  0.00000000E+00  0.00000000E+00
  0.00000000E+00  0.00000000E+00  0.00000000E+00  0.00000000E+00 -8.90406701E-01
  0.00000000E+00  0.00000000E+00  0.00000000E+00  1.23347779E+00  0.00000000E+00
  0.00000000E+00  0.00000000E+00 -4.97728819E-01  0.00000000E+00  0.00000000E+00
  0.00000000E+00 -4.29079150E-01  0.00000000E+00  0.00000000E+00  0.00000000E+00
  0.00000000E+00  0.00000000E+00  8.90406701E-01  0.00000000E+00  0.00000000E+00
  0.00000000E+00 -1.23347779E+00  0.00000000E+00  0.00000000E+00  0.00000000E+00
  4.97728819E-01  0.00000000E+00  0.00000000E+00  0.00000000E+00 -4.29079150E-01
  0.00000000E+00  0.00000000E+00  4.55247093E-04  2.08041800E-02  0.00000000E+00
  0.00000000E+00  9.55017505E-01 -2.86257538E-01  0.00000000E+00  0.00000000E+00
 -8.62807420E-01  1.94655473E-01  0.00000000E+00  0.00000000E+00  3.18300581E-01
  2.20419547E-01  0.00000000E+00  0.00000000E+00  1.39236667E-16  0.00000000E+00
  4.55247093E-04  2.08041800E-02  0.00000000E+00  0.00000000E+00 -9.55017505E-01
 -2.86257538E-01  0.00000000E+00  0.00000000E+00  8.62807420E-01  1.94655473E-01
  0.00000000E+00  0.00000000E+00 -3.18300581E-01  2.20419547E-01  0.00000000E+00
  0.00000000E+00  1.39236667E-16  0.00000000E+00  8.41691602E-02  1.84518185E-01
  0.00000000E+00  0.00000000E+00 -7.76010797E-01 -1.40341975E+00  0.00000000E+00
  0.00000000E+00  3.00628056E+00 -2.48745598E+00  0.00000000E+00  0.00000000E+00
  6.62025868E-01 -1.35545098E+00  0.00000000E+00  0.00000000E+00  1.85014360E-16
  0.00000000E+00 -8.41691602E-02 -1.84518185E-01  0.00000000E+00  0.00000000E+00
 -7.76010797E-01  1.40341975E+00  0.00000000E+00  0.00000000E+00  3.00628056E+00
  2.48745598E+00  0.00000000E+00  0.00000000E+00  6.62025868E-01  1.35545098E+00
  0.00000000E+00  0.00000000E+00 -1.85014360E-16  0.00000000E+00 -1.51509625E+00
  1.58447104E+00  0.00000000E+00  0.00000000E+00  1.85777721E-03 -2.00651981E-01
  0.00000000E+00  0.00000000E+00 -8.88910933E-03  9.88116776E-02  0.00000000E+00
  0.00000000E+00 -2.11516010E-02  2.37237192E-02  0.00000000E+00  0.00000000E+00
  5.25625682E-18  0.00000000E+00 -1.51509625E+00  1.58447104E+00  0.00000000E+00
  0.00000000E+00 -1.85777721E-03 -2.00651981E-01  0.00000000E+00  0.00000000E+00
  8.88910933E-03  9.88116776E-02  0.00000000E+00  0.00000000E+00  2.11516010E-02