24
	Energy:       6.3758249
C         -4.61056        1.17712        0.26067
C         -3.26406        1.85307        0.01736
C         -2.18139        1.33018        0.96975
C         -2.07465       -0.20039        0.88918
C         -3.41717       -0.91344        1.11415
H         -1.33529       -0.56153        1.61490
H         -1.69557       -0.48166       -0.10270
C         -4.49985       -0.34399        0.18689
H         -5.47244       -0.79529        0.41610
H         -4.26194       -0.62764       -0.84664
H         -5.33368        1.52627       -0.48547
H         -5.00151        1.47749        1.23970
C         -3.84665       -0.86462        2.58301
H         -3.28062       -1.97273        0.85956
H         -4.77505       -1.42685        2.73018
H         -3.08104       -1.31685        3.22249
H         -4.01615        0.15658        2.93595
C         -0.83318        1.97899        0.65718
H         -0.50053        1.73906       -0.35843
H         -0.06465        1.63249        1.35612
H         -0.89776        3.06877        0.74360
H         -2.45357        1.61323        1.99428
H         -3.37700        2.93703        0.13879
H         -2.95925        1.68172       -1.02314
